
#(C) 2021 by Tom Halloran - false sample
data_257864-ICSD
_audit_creation_date 2018-02-01
_chemical_name_common 'False Resolution Sample'
_chemical_formula_structural 'Ti'
_chemical_formula_sum 'Ti'
_chemical_name_structure_type Cubic#Ti
_exptl_crystal_density_diffrn 4.23
_citation_title

;
Strucutre of a fake crystal used in McStas simulation. Only purpose is to 
have reciprocal lattice vectors of 1 Ang^-1 length
;
loop_
_citation_author_citation_id
_citation_author_name
primary 'Thomas Halloran'
_cell_length_a 6.28318
_cell_length_b 6.28318
_cell_length_c 6.28318
_cell_angle_alpha 90.
_cell_angle_beta 90.
_cell_angle_gamma 90.
_cell_volume 248.05
_cell_formula_units_Z 1
_space_group_name_H-M_alt 'P m /3 m'P 42/m n m'
_space_group_IT_number 221
loop_
_space_group_symop_id
_symmetry_equiv_pos_as_xyz
1 'x, y, z'
2 'x+1/2, y, z'
3 '0, y, z'
4 '1/2, y, z'
5 '0, y, z'
6 '1/2, y, y'
7 '0, y, y'
8 'x, 1/2, 0'
9 'x, x, x'
10 'x, 1/2+y, 1/2+z'
11 'x, 0, 0'
12 'x+1/2, 0, 0'
13 '0, y+1/2, z+1/2'
14 'x+1/2, y+1/2, z+1/2'
15 '0, 0, 0'
loop_
_atom_type_symbol
_atom_type_oxidation_number
Ti4+ 4
loop_
_atom_site_label
_atom_site_type_symbol
_atom_site_symmetry_multiplicity
_atom_site_Wyckoff_symbol
_atom_site_fract_x
_atom_site_fract_y
_atom_site_fract_z
_atom_site_U_iso_or_equiv
_atom_site_occupancy
Ti1 Ti4+ 2 a 0 0 0 0.0070(3) 1.
#End of TTdata_257864-ICSD